1008
Atoms. Timestep: 2000000
Al -14.4514 1.2205 2.64108
Al -14.3435 1.25189 11.1187
Al -14.1926 1.23679 -5.87688
Al -9.66461 -1.23863 2.76138
Al -9.57065 -1.07375 11.3801
Al -9.50298 -1.17884 -5.64432
Al -1.39789 9.98921 2.81627
Al -1.12551 9.78652 11.3997
Al -1.31024 9.82087 -5.6925
Al 1.36375 -10.1906 2.86778
Al 1.31997 -9.7213 11.2659
Al 1.35519 -9.79187 -5.50541
Al -9.48995 -1.24081 -2.7275
Al -9.78384 -1.30506 5.78125
Al -9.66928 -1.11645 -11.1129
Al -14.23 1.25449 -2.98466
Al -14.3981 1.2022 5.54973
Al -14.4591 1.18715 -11.5205
Al 1.2289 -9.95555 -2.60843
Al 1.34357 -10.0485 5.74188
Al 1.29921 -9.59689 -11.207
Al -1.18669 9.90705 -2.74243
Al -1.2283 9.96464 5.71165
Al -1.30715 9.8476 -11.2282
Al -14.7345 3.6589 -1.4983
Al -14.9427 3.69293 6.89069
Al -14.7816 3.71576 -9.98274
Al -9.12746 -3.61176 -1.26242
Al -9.15189 -3.63471 7.11383
Al -9.11526 -3.58952 -9.9154
Al -3.69432 9.17609 -1.53889
Al -3.60822 9.09839 7.10166
Al -3.66423 8.97726 -9.89288
Al 3.70334 -8.90549 -1.47952
Al 3.84226 -9.18138 7.13471
Al 3.817 -8.93909 -9.93635
Al -9.25742 -3.8096 1.50717
Al -9.26923 -3.69352 10.0207
Al -9.14542 -3.6021 -7.04749
Al -14.7525 3.81072 1.34135
Al -14.8967 3.75196 9.88736
Al -14.899 3.748 -7.04124
Al 3.68803 -9.20833 1.53899
Al 3.9274 -9.14621 9.94816
Al 3.71268 -9.01957 -7.00028
Al -3.76992 9.15711 1.32105
Al -3.61341 9.02585 10.0814
Al -3.59157 8.93543 -7.01424
Al -16.1713 5.87947 2.62966
Al -16.0546 6.13131 11.1563
Al -16.1637 5.97872 -5.67763
Al -7.96824 -6.08795 2.8422
Al -7.83446 -5.95539 11.3848
Al -7.87297 -6.08225 -5.53735
Al -5.76535 7.80634 2.8396
Al -5.89537 7.79233 11.2804
Al -5.86136 7.79336 -5.77953
Al 5.76651 -7.71435 2.74064
Al 5.95985 -7.66729 11.3836
Al 5.99696 -7.75288 -5.60219
Al -7.97232 -6.19335 -2.6462
Al -7.88985 -5.98035 5.7921
Al -7.83579 -5.91041 -11.1392
Al -16.3394 5.80582 -2.88217
Al -16.3341 5.87435 5.54409
Al -16.1986 5.82831 -11.3754
Al 6.00999 -7.69957 -2.76789
Al 5.88944 -7.76297 5.76361
Al 6.07485 -7.77109 -11.1778
Al -5.94543 7.83367 -2.84049
Al -5.85753 7.80712 5.72703
Al -5.8632 7.72454 -11.1713
Al -18.1779 7.51903 -1.52115
Al -18.224 7.57064 6.9459
Al -18.0315 7.78769 -10.0977
Al -6.04343 -7.84793 -1.21332
Al -5.93473 -7.71015 7.10551
Al -5.89989 -7.6216 -9.72133
Al -7.95153 6.15271 -1.35934
Al -7.54677 6.0343 7.16745
Al -7.92557 6.10871 -9.90346
Al 7.8062 -5.94844 -1.58804
Al 7.86188 -6.06587 6.96734
Al 7.82668 -6.05101 -9.85829
Al -5.97965 -7.86347 1.562
Al -6.01252 -7.6521 10.0016
Al -5.92581 -7.67372 -7.00261
Al -18.1798 7.57538 1.3381
Al -18.067 7.71535 9.8374
Al -18.0359 7.71462 -7.04703
Al 7.57961 -5.92704 1.3607
Al 7.78827 -6.03079 9.85601
Al 7.90368 -6.01242 -6.99891
Al -7.94018 6.20642 1.41788
Al -7.827 6.00393 10.0434
Al -7.89186 6.06471 -6.99282
Al -20.3113 8.84392 2.69893
Al -20.2875 9.06193 11.2098
Al -20.2204 9.06664 -5.80861
Al -3.80203 -9.20468 2.78632
Al -3.82717 -8.95022 11.3507
Al -3.79715 -8.91758 -5.71308
Al -9.16746 3.87637 2.80099
Al -9.19742 3.90384 11.4031
Al -9.19095 3.75208 -5.5769
Al -15.0908 -3.85121 2.72246
Al -14.8478 -3.85668 11.1755
Al -14.8001 -3.79624 -5.70678
Al -3.70418 -9.08999 -2.68589
Al -3.72268 -9.14646 5.74305
Al -3.73582 -8.95482 -11.1537
Al -20.3556 8.98489 -2.83586
Al -20.3284 8.79548 5.43493
Al -20.1547 9.18476 -11.4207
Al -14.8726 -3.76749 -2.80956
Al -14.8982 -3.79003 5.64379
Al -14.8855 -3.87809 -11.3988
Al -9.22942 3.83933 -2.8384
Al -9.09717 3.84119 5.79376
Al -9.09663 3.92213 -11.214
Al -22.6642 10.0507 -1.42041
Al -22.6075 9.82892 6.98231
Al -22.6326 9.94792 -9.88725
Al -1.29292 -9.97264 -1.46802
Al -1.21947 -9.99033 7.03226
Al -1.20833 -9.75917 -9.80743
Al -9.49689 1.26835 -1.4622
Al -9.59626 1.36698 7.04081
Al -9.74017 1.44519 -9.79725
Al -14.342 -1.30662 -1.49454
Al -14.3547 -1.3394 6.92466
Al -14.2948 -1.39264 -10.0862
Al -1.49222 -10.0253 1.50827
Al -1.41577 -9.82995 9.96698
Al -1.31456 -9.6659 -6.90838
Al -22.7917 9.78784 1.4163
Al -22.637 9.81362 9.8791
Al -22.6105 9.99803 -7.05342
Al -14.4356 -1.30073 1.38715
Al -14.4609 -1.25201 9.75359
Al -14.1892 -1.14636 -7.18252
Al -9.596 1.27932 1.36921
Al -9.60488 1.4003 10.0121
Al -9.55494 1.3305 -6.88602
H -18.0244 0.187279 -0.642912
H -18.1128 2.18245 8.32545
H -18.0232 0.0538596 -8.64128
H -5.8559 -0.366361 0.358365
H -6.08418 -2.21002 8.39257
H -5.97733 -0.10218 -8.80442
H -0.103317 6.21431 -0.207879
H -1.62856 5.92807 8.18206
H 0.202371 6.15743 -8.45922
H 0.0662892 -6.37684 0.29645
H 1.63828 -6.05082 8.69525
H 0.154129 -5.87553 -8.53413
H -17.1385 9.38592 -0.133734
H -16.1784 7.7494 8.25696
H -15.8435 7.83054 -8.58086
H -7.9118 -7.83995 0.121116
H -8.06049 -7.86554 8.43665
H -8.04481 -7.81307 -8.3422
H -7.63733 8.1067 -0.0159783
H -7.70629 8.17749 8.48007
H -7.83154 8.22543 -8.40325
H 7.63981 -8.08824 -0.364971
H 7.8388 -8.25557 8.29386
H 7.81356 -8.0099 -8.46596
H -13.0202 -2.03736 -3.46247
H -13.2123 -2.23879 4.82175
H -13.0075 -2.176 13.3572
H -11.1171 2.24716 -3.56931
H -10.8157 2.09324 4.87236
H -10.9142 2.34488 13.4496
H -9.72551 -9.82198 -3.58187
H -9.86146 -9.89208 4.80449
H -9.75948 -9.63989 -11.8925
H -14.2729 9.67983 -3.48728
H -14.0486 9.85971 4.90571
H -14.0989 9.96945 13.4736
H -11.5377 2.71521 2.33931
H -11.5065 2.97202 11.0717
H -11.5872 2.57469 -6.04113
H -12.5157 -2.63184 2.60286
H -12.577 -3.27529 10.6071
H -12.3627 -2.88566 -5.86522
H -15.1062 9.11979 2.29319
H -15.2988 9.26533 10.7722
H -14.9549 9.4769 -5.86535
H -8.89566 -9.34553 2.33011
H -8.83316 -9.2774 10.8486
H -9.04006 -9.12873 -6.12055
H -18.3765 1.79003 4.02626
H -18.1361 1.59459 12.9927
H -18.2949 1.69436 -4.77099
H -5.68982 -1.95861 4.66111
H -5.6686 -1.67467 12.8517
H -5.64727 -2.41504 -3.31074
H -1.37583 5.9369 4.35553
H -1.35927 6.0197 12.4874
H -1.59263 5.95294 -4.13005
H 1.18703 -6.53975 4.20377
H 1.45666 -5.8177 12.7477
H 1.35715 -6.22967 -3.96102
H -18.2786 9.33769 4.0779
H -18.2124 9.7683 12.5078
H -18.1648 9.56146 -4.25582
H -5.81549 -9.92725 4.11741
H -5.8032 -9.45635 12.9406
H -5.65388 -9.67625 -4.01696
H -10.9763 4.73844 4.37223
H -10.1379 5.7419 12.8876
H -11.2334 4.55174 -4.39718
H -13.0552 -4.72229 4.16688
H -13.0954 -4.88359 12.7099
H -12.9805 -4.31236 -4.1218
H -12.2806 0.16894 1.75516
H -12.3197 0.177148 10.0203
H -12.0973 0.212134 -6.96971
H -11.0144 -0.557121 0.594989
H -10.8287 -0.569942 9.17327
H -10.8245 -0.768918 -7.80398
H -11.8943 -8.75878 1.96163
H -11.8918 -8.92193 10.4994
H 11.463 -9.78683 -8.04889
H -11.3306 8.47634 1.74715
H -11.7436 8.75253 10.6306
H -11.7488 9.08431 -6.49879
H -11.537 -0.187018 -1.7886
H -11.7916 -0.122942 7.08151
H -11.7309 -0.0434444 -10.1835
H -12.8273 0.811566 -0.936421
H -13.3659 0.778653 7.79039
H -13.1595 0.718122 -9.28827
H -11.3925 9.47302 -0.493636
H -11.2552 9.48737 7.99617
H -11.3517 9.73625 -8.93665
H 11.2968 -9.36996 -0.570597
H -12.4191 -9.53663 7.9449
H -12.595 -8.80441 -10.1172
H -18.6114 2.83609 -0.151578
H -19.6795 4.38305 8.15738
H -18.6466 3.07308 -8.36179
H -5.37323 -2.9837 0.0781983
H -4.35205 -4.45561 8.50044
H -5.22835 -3.03351 -8.35612
H -3.1422 5.34462 0.0789924
H -4.39199 4.24719 8.83485
H -3.3094 4.77791 -8.51057
H 3.01884 -5.20728 -0.536669
H 4.71703 -4.1263 8.39628
H 3.26495 -5.10869 -8.2809
H -8.77704 -9.8202 -0.0221966
H -8.72336 -9.9411 8.52532
H -8.91852 -9.67318 -8.57085
H -13.8114 8.84643 -0.0509451
H -15.0041 9.54524 8.43099
H -15.0648 9.86928 -8.36241
H -10.9135 2.88458 -0.0565604
H -11.5995 1.73339 8.51914
H -11.6958 1.80446 -8.18361
H -13.3755 -3.13612 0.0640614
H -13.2245 -3.06213 8.54604
H -12.9018 -3.11393 -8.47378
H -12.4902 3.04848 -2.39641
H -12.6344 3.15619 5.83443
H -12.5739 3.01833 -10.7985
H -11.3808 -2.87855 -2.32597
H -11.4769 -3.09344 6.10461
H -11.4492 -2.94401 -10.8385
H 8.65318 -9.3728 -2.52236
H 8.63469 -9.19552 6.06715
H 8.61814 -9.37957 -10.8445
H -8.42103 10.1753 -3.54783
H -8.32683 10.0092 4.98805
H -8.33743 10.3011 13.4373
H -10.681 -3.34144 3.69045
H -10.5144 -3.02988 12.2773
H -10.347 -3.70394 -4.93583
H -13.4881 3.29513 3.47395
H -13.3211 3.55804 11.8261
H -13.4433 3.41084 -4.868
H -8.38432 9.07897 2.65318
H -8.4965 9.40009 11.146
H -8.55169 9.40573 -5.95086
H 8.18316 -10.0515 3.38787
H 8.50587 -10.2858 12.1969
H 8.46408 -10.0507 -4.77421
H -19.5314 4.09569 4.30611
H -19.8865 4.37411 12.2026
H -20.0797 4.34554 -4.30119
H -4.25138 -4.34741 4.07029
H -4.50464 -4.11282 12.7061
H -4.4298 -4.41201 -4.34472
H -4.37091 4.06265 3.89763
H -4.35899 4.23152 12.9346
H -4.58131 4.07991 -4.36795
H 4.37313 -3.97998 3.9952
H 4.41864 -4.25486 12.3107
H 4.48678 -4.01819 -4.71399
H 10.4089 -8.84066 4.21606
H 10.5147 -8.93639 12.6461
H 10.5007 -8.89621 -4.12566
H -10.3932 8.47897 4.34981
H -10.1994 9.14961 12.8015
H -10.3172 8.84453 -4.34487
H -11.0809 0.260517 4.27255
H -10.9992 0.505813 12.7048
H -11.0946 0.211071 -4.29645
H -12.7942 -0.26566 3.96425
H -12.6547 -0.112114 12.5187
H -12.6739 -0.111296 -4.4762
H -14.7696 6.21075 0.448328
H -14.0897 6.11845 9.19481
H -14.9102 6.15826 -7.93744
H -9.55113 -6.4423 0.826974
H -9.64578 -6.13554 9.32462
H -10.2366 -6.21954 -6.52657
H -5.99763 10.1963 1.78476
H -5.91648 10.1231 10.0656
H -5.95106 10.0279 -6.92585
H 5.83802 -9.12108 0.526572
H 6.26546 -8.91759 9.1166
H 6.21138 -9.22843 -7.83635
H -10.2738 -6.47106 -1.6512
H -10.4005 -6.38328 6.78243
H -9.60395 -5.84499 -9.06177
H -13.8215 5.97685 -2.03518
H -13.8425 5.87496 6.20678
H -13.6421 6.10088 -10.671
H 6.08559 -9.9935 -1.55064
H 6.12173 -10.1752 6.8975
H 6.07379 -10.1033 -9.98341
H -6.22393 9.21032 -0.585367
H -5.89011 8.91952 7.92132
H -5.84952 8.86764 -8.90139
H 2.38056 5.3007 -0.748912
H 1.09947 6.18768 8.90265
H 2.87262 5.38734 -8.88092
H -2.83231 -5.43893 0.0455142
H -1.28036 -6.10906 8.2395
H -2.76884 -5.15621 -8.48762
H -5.30591 3.3482 -0.0107321
H -5.95124 1.47505 8.20856
H -5.44146 2.92572 -8.68012
H 5.36238 -2.98002 -0.128102
H 5.82225 -1.73066 8.03609
H 5.44761 -3.1519 -8.91664
H 9.10748 -9.68999 -0.0652294
H 9.14084 -9.817 8.63572
H 9.05524 -9.7244 -8.3783
H -8.99984 9.7779 -0.123944
H -9.05146 9.66861 8.60244
H -9.13629 9.96856 -8.44248
H -11.1485 -2.95975 -0.0230989
H -11.0675 -2.68452 8.4105
H -11.0763 -2.72953 -8.31914
H -13.078 2.74291 0.187081
H -12.8205 4.30257 8.07527
H -12.9423 4.34843 -8.50664
H -15.9268 8.44968 -2.33562
H -15.8741 8.507 5.97035
H -16.0101 8.85695 -11.0009
H -8.18631 -8.83864 -2.60419
H -8.22863 -8.60287 5.99857
H -8.24539 -8.57059 -10.9184
H -8.38419 8.51176 -2.47716
H -8.35559 8.20395 6.10698
H -8.3017 8.64229 -10.7152
H 8.27069 -7.17883 -3.76087
H 8.24991 -7.57134 4.83642
H 8.42243 -7.44666 -11.9487
H -7.37806 -8.38929 3.68594
H -7.56137 -8.31435 12.3033
H -7.06905 -8.38683 -4.78018
H -16.6518 8.01479 3.7057
H -16.5881 8.28763 11.8774
H -16.7636 8.37682 -4.79852
H 8.15657 -8.38718 2.44245
H 8.5972 -8.39286 10.8699
H 8.5214 -8.32566 -6.00131
H -8.26845 7.48678 3.67729
H -8.42913 7.38786 12.1144
H -8.18021 7.4748 -4.95474
H 1.15539 6.02902 3.57077
H 1.3315 5.93987 12.8569
H 1.31404 6.06255 -4.37166
H -1.13658 -6.23301 3.88736
H -1.15909 -5.98194 12.4186
H -1.15094 -5.88839 -3.79752
H -5.95373 1.55057 3.80034
H -5.9081 1.84127 13.1675
H -5.85221 2.00836 -4.10665
H 5.8169 -1.84992 4.23943
H 5.74839 -1.3757 12.8424
H 6.03251 -1.7679 -4.40529
H -5.47043 9.84888 4.19808
H -5.44572 9.91703 12.8372
H -5.21297 9.63355 -4.2587
H 5.44497 -9.85579 4.2727
H 5.38669 -9.76573 12.7926
H 5.36219 -9.77474 -4.24017
H -9.62366 -7.24266 4.46461
H -9.92634 -5.66402 12.8354
H -9.62296 -7.41805 -4.04884
H -14.3902 6.91791 3.99947
H -14.5509 7.3338 12.6978
H -14.802 7.23086 -4.17548
H -18.3326 10.1592 1.59606
H -18.3013 10.2481 9.95831
H -18.0616 10.2834 -6.88386
H -4.68749 -9.97922 0.5784
H -4.8994 -9.64295 9.08526
H -4.76299 -9.70302 -7.87351
H -10.0582 5.20024 0.520839
H -9.98566 5.14336 9.19786
H -10.2893 6.00907 -6.30682
H -13.8396 -6.0057 1.84422
H -13.5616 -5.85716 10.3555
H -13.5008 -5.56546 -6.47449
H -5.74857 -10.3301 -1.75454
H -5.74077 -10.2053 6.76328
H -5.62128 -10.2294 -10.1719
H -19.3682 9.91789 -0.814723
H -19.2432 9.61415 7.63807
H -19.0899 9.89363 -9.17355
H -14.128 -5.06074 -0.513862
H -14.2038 -5.1309 7.7914
H -13.7386 -5.19364 -9.44824
H -10.4428 6.16232 -2.01358
H -10.0959 5.88879 6.33153
H -10.1972 5.16042 -9.15915
O -17.5518 1.0397 -0.302939
O -17.6326 1.27077 8.35882
O -17.5823 1.01656 -8.64492
O -6.3423 -1.27158 0.371545
O -6.41718 -1.24587 8.4605
O -6.45584 -0.980592 -8.63199
O -0.987621 6.68143 0.070377
O -0.952335 6.63442 8.55483
O -0.76084 6.60702 -8.45928
O 0.983165 -6.75655 0.063158
O 0.940262 -6.73036 8.43368
O 1.03722 -6.50918 -8.49759
O -15.3301 -0.335354 -0.181933
O -15.5951 -0.31907 8.38661
O -15.2778 -0.402994 -8.65037
O -8.49732 0.302615 0.0648491
O -8.5 0.436144 8.55043
O -8.62453 0.419 -8.3088
O 0.318106 8.99713 -0.058952
O 0.351826 8.88583 8.50668
O 0.351285 8.95759 -8.49607
O -0.284381 -9.033 0.0355286
O -0.315141 -8.97423 8.47452
O -0.324281 -8.67032 -8.34445
O -15.4697 1.82567 1.13289
O -15.4757 1.86516 9.67741
O -15.4565 1.68829 -7.22585
O -8.65686 -1.88699 1.33517
O -8.63732 -1.69334 9.84582
O -8.53048 -1.7905 -7.09185
O -1.88284 8.811 1.2937
O -1.7667 8.82599 9.8253
O -1.82817 8.64378 -7.22897
O 1.87409 -8.86116 1.36993
O 1.89532 -8.84179 9.72728
O 1.94579 -8.55587 -7.11174
O -8.35584 -1.91305 -1.1619
O -8.58181 -1.81507 7.23837
O -8.66465 -1.78457 -9.70542
O -15.2684 1.78062 -1.46631
O -15.4782 1.85623 7.05123
O -15.4043 1.81783 -9.8155
O 1.80932 -8.88485 -1.2306
O 1.98825 -8.87942 7.254
O 1.89868 -8.67701 -9.73558
O -1.83704 8.77215 -1.30434
O -1.77103 8.70939 7.20175
O -1.8271 8.71029 -9.75024
O -13.5223 3.59279 -0.081132
O -13.582 3.63702 8.17507
O -13.5413 3.51205 -8.50183
O -10.4572 -3.71111 0.0327302
O -10.4602 -3.50115 8.47885
O -10.4503 -3.55102 -8.48906
O 8.27148 -10.2366 -0.277314
O -3.60443 10.3136 8.52786
O -3.6595 10.3184 -8.40616
O -8.14219 10.3491 0.0249226
O -8.20016 10.2827 8.6664
O 3.70323 -10.2179 -8.43664
O -13.305 0.342818 1.43664
O -13.3111 0.360454 9.72723
O -13.125 0.441865 -7.19256
O -10.8361 -0.241738 1.55333
O -10.8017 -0.138149 10.1161
O -10.7294 -0.272672 -6.89177
O -12.2876 -9.57475 1.48372
O -12.0954 -9.84912 10.1158
O 11.5301 -9.67813 -7.01858
O -11.2594 9.41256 1.45742
O -11.4771 9.61764 10.1092
O -11.6491 9.97162 -6.833
O -10.59 -0.336357 -1.44616
O -10.7235 -0.281892 7.19891
O -10.7137 -0.203576 -9.93353
O -13.035 0.340793 -1.82664
O -13.3224 0.289047 6.88318
O -13.2331 0.231006 -10.2354
O -11.7258 9.60875 -1.46324
O -11.5701 9.67066 7.03269
O -11.6855 9.98047 -9.89745
O -12.3418 -9.70294 -1.48385
O -12.1757 -9.64035 6.95561
O 11.5388 -9.7847 -10.0164
O -17.9894 2.74303 4.12314
O -17.9876 2.59464 12.7407
O -17.9924 2.68205 -4.64861
O -6.04 -2.84555 4.30286
O -5.97196 -2.65681 12.7556
O -6.02097 -3.1684 -3.9415
O -2.39911 6.14906 4.24341
O -2.38378 6.13059 12.7511
O -2.63138 6.08527 -4.09029
O 2.18711 -6.45377 4.51043
O 2.4977 -6.03909 12.7048
O 2.37499 -6.18955 -4.17377
O -15.5665 1.86002 4.09797
O -15.5148 1.88481 12.519
O -15.4973 1.94252 -4.28209
O -8.52057 -1.92586 4.30872
O -8.44954 -1.78045 12.8234
O -8.34928 -1.98125 -4.11664
O -2.00224 8.78021 4.14846
O -1.87047 8.63621 12.8356
O -1.82562 8.57146 -4.12697
O 1.97244 -8.97888 4.36977
O 2.00116 -8.49544 12.7554
O 1.95765 -8.63573 -4.23689
O -16.3532 3.93794 -3.07497
O -16.1088 4.00183 5.357
O -16.0442 3.90815 -11.4507
O -8.10333 -4.23282 -2.73965
O -7.93699 -4.06191 5.68743
O -7.80793 -3.89 -11.3796
O -4.04566 7.88998 -2.9345
O -3.90167 7.89688 5.56494
O -3.89546 7.7635 -11.2972
O 3.98233 -7.84989 -2.91884
O 3.9708 -8.0026 5.55826
O 4.05347 -7.83549 -11.4433
O -8.10004 -4.12018 3.10146
O -7.94453 -3.89711 11.5063
O -8.0192 -4.1478 -5.3473
O -16.0995 4.03513 2.79932
O -16.0945 4.0832 11.4045
O -16.0828 4.01184 -5.66087
O 3.89642 -7.9422 3.05833
O 3.96375 -7.81789 11.4208
O 4.0309 -7.77906 -5.55862
O -3.90814 7.83152 2.94508
O -3.90271 7.97087 11.6005
O -3.92766 7.90619 -5.43316
O -15.0064 6.128 4.11876
O -14.971 6.37961 12.6644
O -15.1155 6.28433 -4.21948
O -9.11024 -6.31638 4.4324
O -9.08007 -6.22738 12.8798
O -9.22388 -6.47701 -4.03964
O -6.11031 9.05751 4.1959
O -5.99068 9.06318 12.8128
O -6.07803 9.06186 -4.29221
O 6.13241 -9.05992 4.26538
O 6.14102 -9.08532 12.7938
O 6.06082 -9.04497 -4.18753
O -13.4748 3.17499 -2.76167
O -13.6285 3.0829 5.52239
O -13.487 3.04313 -11.2027
O -10.3858 -2.96091 -2.53374
O -10.4593 -3.11008 5.84414
O -10.4726 -2.82704 -11.1822
O 8.89385 -10.3256 -2.77254
O 8.97302 -10.1819 5.88297
O 8.83757 -10.2917 -11.2354
O -8.87712 10.2622 -2.63482
O -8.71336 10.0158 5.91884
O -8.70981 10.339 -11.0918
O -10.6992 -2.98262 2.72879
O -10.4426 -2.86021 11.2813
O -10.4577 -3.15544 -5.77841
O -13.5078 2.95179 2.51395
O -13.527 3.07592 10.9318
O -13.62 3.07609 -5.80436
O -8.71259 10.1398 2.72527
O 3.32781 -10.3788 11.3406
O -8.79772 10.3638 -5.7454
O 8.7087 -10.1742 2.52546
O 8.86214 -10.2716 11.2147
O 8.82985 -10.2335 -5.74337
O -18.7236 3.86738 -0.0340474
O -18.775 4.01773 8.54657
O -18.7633 4.11127 -8.43872
O -5.32724 -4.01813 -0.0195003
O -5.31607 -4.13659 8.67491
O -5.31822 -4.0335 -8.55069
O -4.14987 5.24408 0.0296581
O -3.95541 5.11021 8.51609
O -4.31235 4.88097 -8.54777
O 4.03839 -4.99851 -0.246208
O 4.18257 -4.99344 8.56351
O 4.24953 -4.97025 -8.47319
O -16.1535 4.03129 -0.0918036
O -16.1872 4.10364 8.33852
O -16.1713 4.03098 -8.47307
O -7.96542 -4.16264 0.122192
O -7.91576 -4.10111 8.6213
O -7.87527 -4.06413 -8.38576
O -4.03526 7.84488 -0.0933335
O -3.89831 7.70111 8.57592
O -3.99886 7.58248 -8.48205
O 3.82795 -7.51383 -0.171
O 4.05141 -7.74008 8.53292
O 4.10793 -7.57042 -8.45308
O -17.4296 5.81256 1.21333
O -17.2967 5.926 9.69086
O -17.3561 5.92216 -7.20474
O -6.64513 -5.94674 1.34854
O -6.622 -5.9499 9.96598
O -6.5158 -5.83202 -7.08293
O -5.98628 6.62383 1.26553
O -5.80504 6.45064 9.80306
O -5.77848 6.42422 -7.09826
O 5.68579 -6.45461 1.24621
O 5.8233 -6.55131 9.87999
O 6.00257 -6.53096 -7.29686
O -6.69547 -6.05 -1.14878
O -6.70747 -5.98596 7.35422
O -6.68031 -5.91238 -9.60668
O -17.5281 5.83284 -1.37403
O -17.5429 5.86607 7.14739
O -17.2914 5.88453 -9.80906
O 5.79615 -6.42895 -1.38536
O 5.8091 -6.43891 7.21955
O 5.93554 -6.43258 -9.81404
O -5.96108 6.63458 -1.30325
O -5.76961 6.59231 7.24952
O -6.00986 6.55143 -9.68098
O -16.9881 8.33367 0.0361928
O -17.0331 8.23845 8.29214
O -16.7986 8.27134 -8.48602
O -7.10975 -8.44839 0.158918
O -7.15362 -8.34493 8.57977
O -7.13786 -8.22948 -8.34073
O -8.31592 7.34612 -0.0107109
O -8.15853 7.22571 8.53889
O -8.3124 7.30292 -8.41167
O 8.1101 -7.19932 -0.131946
O 8.23654 -7.32781 8.4376
O 8.39282 -7.17021 -8.41128
O -14.6387 5.80061 1.38399
O -14.5071 5.6209 9.98223
O -14.6433 5.76547 -7.02791
O -9.45006 -5.89377 1.71712
O -9.45078 -5.62667 10.2312
O -9.34032 -5.92889 -6.88972
O -5.62145 9.23213 1.5027
O -5.58485 9.12658 9.98821
O -5.61814 9.07247 -7.05196
O 5.52131 -9.13092 1.53895
O 5.90964 -9.191 10.0672
O 5.78164 -9.26645 -6.89096
O -9.36186 -6.32189 -1.28127
O -9.44506 -6.13144 7.0899
O -9.41675 -5.47163 -10.0158
O -14.6387 5.62462 -1.64443
O -14.6683 5.72895 6.72841
O -14.4708 5.70081 -10.1617
O 5.70178 -9.03983 -1.34774
O 5.74183 -9.1712 7.11861
O 5.7409 -9.13888 -9.85694
O -5.76464 9.27827 -1.51714
O -5.61086 9.20964 6.99415
O -5.61295 9.07302 -9.87151
O -19.9988 4.96635 4.23917
O -20.0612 5.26759 12.6082
O -20.3194 5.34887 -4.37241
O -3.93209 -5.29883 4.14304
O -4.09994 -5.05063 12.9411
O -4.08567 -5.27744 -4.02326
O -5.37737 3.96686 3.94153
O -5.36988 3.94944 12.9993
O -5.62195 3.91772 -4.29504
O 5.35428 -3.73706 4.13942
O 5.36864 -3.96091 12.6244
O 5.45968 -3.80901 -4.50539
O -17.6287 5.7514 4.16679
O -17.5496 5.91222 12.752
O -17.7463 5.82034 -4.35886
O -6.42816 -5.87238 4.2319
O -6.47675 -5.88219 12.8387
O -6.55081 -6.03409 -4.08186
O -5.83827 6.42693 4.16103
O -5.89734 6.46959 12.8729
O -5.95456 6.45018 -4.27523
O 5.814 -6.30804 4.30859
O 6.01087 -6.43651 12.81
O 5.92989 -6.34355 -4.23929
O -19.307 7.35362 -3.03222
O -19.311 7.22737 5.41868
O -19.299 7.34824 -11.4165
O -4.83141 -7.45921 -2.73424
O -4.70821 -7.3226 5.60937
O -4.76928 -7.2121 -11.2984
O -7.57025 4.94627 -2.90685
O -7.42376 4.82677 5.44599
O -7.50132 5.00925 -11.3267
O 7.5035 -4.75413 -3.06144
O 7.44096 -4.8484 5.46522
O 7.46625 -4.78346 -11.5421
O -4.84318 -7.43533 3.02018
O -4.74849 -7.25513 11.5672
O -4.77109 -7.358 -5.32653
O -19.3875 7.1788 2.91662
O -19.0556 7.44965 11.4832
O -19.2644 7.38355 -5.59596
O 7.36918 -4.75533 2.85744
O 7.50368 -4.87195 11.3299
O 7.56858 -4.88467 -5.57983
O -7.52684 4.97102 2.87433
O -7.42551 4.86618 11.5719
O -7.64577 4.92407 -5.45081
O -19.294 9.6627 4.03636
O -19.2435 9.92189 12.5994
O -19.1751 9.83845 -4.31849
O -4.8051 -9.83036 4.22497
O -4.77268 -9.72157 12.8451
O -4.67646 -9.86298 -4.19075
O -9.97308 4.77594 4.31109
O -10.0526 4.75499 12.9078
O -10.2109 4.73362 -4.31793
O -14.0476 -4.79891 4.08444
O -14.1051 -4.74516 12.5928
O -13.9277 -4.66297 -4.31228
O -16.6094 7.81242 -2.70433
O -16.606 7.823 5.67697
O -16.6347 8.08706 -11.3752
O -7.44251 -8.1103 -2.63425
O -7.44004 -7.94266 5.88037
O -7.4172 -7.93508 -11.1457
O -7.90606 7.62679 -2.70811
O -7.74595 7.39135 5.89444
O -7.95169 7.73192 -11.1303
O 7.89366 -7.49094 -2.81286
O 7.85577 -7.64161 5.79902
O 7.96692 -7.62236 -11.0494
O -7.53252 -7.98823 2.77839
O -7.6539 -7.94203 11.3235
O -7.42701 -7.99252 -5.67017
O -16.6478 7.75509 2.69381
O -16.4655 7.9396 10.9298
O -16.4852 7.91693 -5.70495
O 7.65529 -7.50969 2.67313
O 8.05263 -7.54642 11.1403
O 7.91764 -7.51584 -5.76535
O -7.919 7.70458 2.72901
O -7.83474 7.49561 11.2113
O -7.92309 7.6501 -5.88648
O 2.02035 6.20864 -0.377631
O 2.08801 6.14062 8.61356
O 2.32137 6.23534 -8.61467
O -2.31743 -6.34404 -0.0174893
O -2.25957 -6.27475 8.506
O -2.24021 -6.02467 -8.34166
O -6.09514 2.65969 -0.1514
O -6.05876 2.41786 8.63511
O -6.28665 2.50177 -8.35976
O 6.16301 -2.31718 -0.255378
O 6.01758 -2.67117 8.30642
O 6.26061 -2.54226 -8.70205
O -19.5217 7.20426 -0.168942
O -19.4832 7.27652 8.30879
O -19.3079 7.32875 -8.46413
O -4.70788 -7.44118 0.106922
O -4.57735 -7.33164 8.51582
O -4.57062 -7.19801 -8.49066
O -7.57092 4.84692 -0.0741827
O -7.30585 4.6842 8.45546
O -7.57479 4.80766 -8.39967
O 7.36276 -4.61212 -0.0110517
O 7.47049 -4.84048 8.48832
O 7.52715 -4.69998 -8.41135
O -21.4685 8.33881 1.2179
O -21.4051 8.34512 9.7189
O -21.2745 8.48292 -7.30309
O -2.67202 -8.53569 1.34062
O -2.71069 -8.56446 9.76679
O -2.7808 -8.22328 -7.15913
O -8.35581 2.83499 1.20652
O -8.33867 2.83525 9.8001
O -8.51108 2.85053 -7.0617
O -15.6156 -2.70341 1.20258
O -15.6596 -2.76739 9.66142
O -15.5047 -2.63695 -7.23129
O -2.72992 -8.52503 -1.24098
O -2.60963 -8.48219 7.26797
O -2.59256 -8.26045 -9.70148
O -21.3766 8.5326 -1.34714
O -21.4359 8.36774 7.11256
O -21.2155 8.42415 -9.77399
O -15.5614 -2.78523 -1.35365
O -15.5928 -2.8219 7.15675
O -15.441 -2.84482 -9.7971
O -8.38229 2.8144 -1.32325
O -8.22824 2.76478 7.12861
O -8.48449 2.8968 -9.66964
O -9.83299 -9.85149 0.027729
O -9.7462 -9.96951 8.48103
O -9.97261 -9.82669 -8.48467
O -14.0847 9.81483 -0.00867834
O -14.0275 9.66713 8.52336
O -14.0607 10.0785 -8.31831
O -10.5988 1.9133 -0.0581036
O -10.6304 2.03178 8.54877
O -10.7229 2.01534 -8.24142
O -13.2173 -2.13024 0.0357089
O -13.3313 -2.02325 8.42642
O -12.9108 -2.06092 -8.48396
O -19.0162 9.41258 1.34389
O -18.9354 9.4649 9.78172
O -18.854 9.60404 -6.99782
O -5.07383 -9.71622 1.49138
O -5.23784 -9.40762 10.0506
O -5.09922 -9.4197 -6.93057
O -9.76882 5.43547 1.48132
O -9.52535 5.26392 10.1374
O -9.77 5.36807 -6.87743
O -14.4919 -5.32261 1.47799
O -14.2299 -5.26307 9.86828
O -14.209 -5.095 -6.94597
O -5.12088 -9.59435 -1.41354
O -5.07106 -9.50457 7.09318
O -5.00054 -9.43559 -9.78177
O -18.9201 9.50124 -1.68248
O -18.9172 9.32968 6.7036
O -18.7749 9.52915 -10.0886
O -14.4867 -5.2201 -1.45137
O -14.4354 -5.29404 6.80084
O -14.4157 -5.40976 -10.2238
O -9.7743 5.47681 -1.63246
O -9.58875 5.20913 6.8748
O -9.71075 5.38326 -10.0559
O 0.468261 6.67838 4.03225
O 0.703798 6.69831 12.9497
O 0.581892 6.82275 -4.24721
O -0.537892 -7.01702 3.92328
O -0.527013 -6.72218 12.6996
O -0.427859 -6.65387 -3.87467
O -6.53268 0.772722 4.18368
O -6.48452 1.02382 13.0715
O -6.39058 1.12869 -4.192
O 6.4328 -1.039 4.20768
O -17.5175 -0.698078 12.6371
O -17.3387 -0.949233 -4.39483
O -21.5432 8.27475 4.10695
O -21.3572 8.43271 12.8084
O -21.4172 8.45926 -4.27784
O -2.51686 -8.53154 4.14736
O -2.52406 -8.32507 12.7164
O -2.49572 -8.27158 -3.9818
O -8.30242 2.6598 4.17437
O -8.37876 2.74783 12.8923
O -8.42047 2.7074 -4.19276
O -15.6089 -2.71614 4.15388
O -15.6872 -2.69226 12.5736
O -15.4935 -2.58759 -4.28471
O 0.520269 9.12285 -3.01366
O 0.436485 8.96909 5.44747
O 0.539191 9.11214 -11.3215
O -0.370326 -9.01789 -2.90208
O -0.498149 -9.09165 5.51194
O -0.389215 -8.85118 -11.3849
O -8.55438 0.48788 -2.89318
O -8.77517 0.552094 5.51647
O -8.67502 0.518033 -11.2821
O -15.1836 -0.456607 -3.03971
O -15.3454 -0.573234 5.45977
O -15.2424 -0.51265 -11.6312
O -0.446628 -9.3614 2.91496
O -0.457849 -9.00523 11.4139
O -0.472755 -8.81913 -5.39155
O 0.299532 8.91851 2.83981
O 0.436194 8.82086 11.5511
O 0.478019 9.09245 -5.54645
O -15.4504 -0.520443 2.8467
O -15.2319 -0.519853 11.2897
O -15.088 -0.467068 -5.61595
O -8.8504 0.49347 2.93165
O -8.71975 0.646436 11.599
O -8.56789 0.449487 -5.46293
O 11.0691 -9.61077 4.11936
O 11.1388 -9.70802 12.7662
O 11.0459 -9.77619 -4.22781
O -10.9704 9.34724 4.35544
O -10.9886 9.78361 12.7011
O -10.9144 9.70783 -4.21315
O -10.9149 -0.732364 4.293
O -10.8884 -0.551042 12.7999
O -10.7318 -0.721269 -4.18748
O -13.2359 0.663085 4.05126
O -13.1364 0.801646 12.5353
O -13.0899 0.806815 -4.4528
O -9.37878 -9.95863 -2.62113
O -9.38686 -10.2635 5.66186
O -9.31848 -9.96782 -11.0256
O -14.5546 9.96409 -2.55691
O -14.4915 10.0939 5.8415
O -14.5091 10.2449 -11.1047
O -10.6678 2.48841 -2.65964
O -10.5794 2.55526 5.75885
O -10.6622 2.59583 -11.0447
O -13.3441 -2.53411 -2.67766
O -13.3366 -2.61565 5.76091
O -13.3394 -2.62691 -11.1865
O -14.6123 9.92392 2.71914
O -14.6998 10.0419 11.1079
O -2.62007 -10.3786 -5.73104
O -9.48347 -10.0981 2.68728
O -9.38542 -10.1507 11.1081
O -9.38234 -10.0584 -5.89109
O -13.5127 -2.36218 2.73621
O -13.3688 -2.78064 10.9956
O -13.3599 -2.51928 -5.74056
O -10.5746 2.43815 2.61538
O -10.5878 2.58057 11.2844
O -10.655 2.34886 -5.6399
Si -16.0008 1.11864 -0.247282
Si -16.1005 1.18236 8.35399
Si -16.0346 1.07623 -8.55442
Si -7.86622 -1.15762 0.17351
Si -8.0276 -1.02 8.5215
Si -8.01418 -1.00601 -8.5467
Si -1.10235 8.25997 0.0359136
Si -1.06184 8.22552 8.46831
Si -1.01177 8.12562 -8.53541
Si 1.10592 -8.33417 0.102014
Si 1.10459 -8.28066 8.48912
Si 1.13565 -8.07714 -8.3853
Si -16.444 3.15685 4.10492
Si -16.4222 3.19871 12.6552
Si -16.4608 3.13441 -4.42717
Si -7.61321 -3.26287 4.32774
Si -7.51771 -3.06994 12.7321
Si -7.61964 -3.40996 -3.99756
Si -3.03485 7.59352 4.29491
Si -3.0229 7.53599 12.8563
Si -3.07734 7.5669 -4.11387
Si 2.95656 -7.78874 4.32653
Si 3.15589 -7.50575 12.717
Si 3.12405 -7.54598 -4.27071
Si -17.5061 4.87068 -0.0619329
Si -17.5032 4.942 8.45418
Si -17.423 4.97633 -8.52278
Si -6.63952 -5.05443 0.0680501
Si -6.62528 -5.03311 8.66477
Si -6.67718 -4.96086 -8.38156
Si -5.04813 6.51966 -0.0255781
Si -4.84668 6.42356 8.54811
Si -5.00468 6.32303 -8.48236
Si 4.84135 -6.33829 -0.0891654
Si 4.92131 -6.36675 8.50886
Si 4.99885 -6.34798 -8.51274
Si -19.0962 6.23557 4.09839
Si -19.0361 6.43719 12.747
Si -19.1827 6.44009 -4.36025
Si -4.88551 -6.53612 4.25192
Si -4.9522 -6.34096 12.8654
Si -5.07032 -6.48734 -4.03643
Si -6.53942 5.02513 4.11542
Si -6.52832 5.0119 12.8092
Si -6.75838 5.07826 -4.20257
Si 6.46792 -4.89806 4.18114
Si 6.5791 -4.93315 12.6598
Si 6.62046 -4.94842 -4.33452
Si -21.1787 7.60103 -0.0996629
Si -21.1001 7.50372 8.38044
Si -20.8587 7.61541 -8.57083
Si -3.1077 -7.67948 0.075326
Si -3.0124 -7.6568 8.51377
Si -2.9991 -7.39176 -8.43689
Si -7.57071 3.19362 -0.0581846
Si -7.41232 3.12376 8.48838
Si -7.641 3.26894 -8.39539
Si 7.50942 -3.03634 -0.149315
Si 7.48541 -3.24636 8.48683
Si 7.74577 -3.1517 -8.46219
Si 0.814212 8.17657 4.09682
Si 1.06658 8.2288 12.8871
Si 0.953203 8.32914 -4.33101
Si -0.994427 -8.48605 4.11569
Si -0.977844 -8.2616 12.7569
Si -0.920286 -8.1567 -4.04748
Si -8.07627 1.06224 4.16853
Si -7.99984 1.19987 12.9142
Si -7.93973 1.12929 -4.16989
Si -16.0283 -1.19528 4.18195
Si -15.9588 -1.1197 12.5248
Si -15.8049 -1.11974 -4.37133
1008
Atoms. Timestep: 2000500
Al -14.2996 1.29777 2.79117
Al -14.3628 1.2408 11.2272
Al -14.4938 1.17404 -5.80846
Al -9.55562 -1.2627 2.87618
Al -9.71822 -1.41206 11.3802
Al -9.8304 -1.29865 -5.70479
Al -1.24473 9.67041 2.62021
Al -1.2171 9.93289 11.1258
Al -1.16421 10.0124 -5.81623
Al 1.17995 -9.71925 2.7628
Al 1.27777 -10.0232 11.1703
Al 1.2605 -9.80537 -5.63816
Al -9.85191 -1.28852 -2.78049
Al -9.60339 -1.35085 5.77706
Al -9.76953 -1.27314 -11.2415
Al -14.4454 1.43417 -2.85526
Al -14.3036 1.23595 5.59351
Al -14.3429 1.23705 -11.3103
Al 1.13557 -9.70845 -2.82305
Al 1.19553 -9.80222 5.7753
Al 1.23482 -9.96324 -11.2281
Al -1.24026 9.94895 -2.90971
Al -1.26159 10.2438 5.52812
Al -1.41161 9.84097 -11.3928
Al -14.7854 3.7467 -1.39849
Al -14.8762 3.60037 7.01699
Al -14.779 3.76277 -9.99475
Al -9.25745 -3.69386 -1.31047
Al -9.15161 -3.69034 7.04136
Al -9.22884 -3.80655 -10.0433
Al -3.54723 9.05865 -1.43336
Al -3.5841 9.12349 6.93737
Al -3.78885 9.11745 -10.0579
Al 3.72504 -9.07402 -1.43212
Al 3.76696 -9.05009 7.09635
Al 3.72883 -9.02616 -9.76174
Al -9.36329 -3.93057 1.47957
Al -9.26955 -3.88236 9.94066
Al -9.31972 -3.90666 -7.13151
Al -14.6465 3.89144 1.4938
Al -14.819 3.72342 9.95328
Al -14.6943 3.72476 -7.0472
Al 3.67799 -9.02549 1.63878
Al 3.70998 -9.09425 10.0805
Al 3.73557 -9.15225 -6.9477
Al -3.69421 8.99302 1.3249
Al -3.7156 8.9904 9.89848
Al -3.74398 9.00072 -7.16831
Al -16.0048 6.10789 2.73921
Al -16.02 6.12129 11.1521
Al -15.8659 6.05157 -5.78717
Al -7.81459 -6.02584 2.8701
Al -8.0687 -6.09355 11.2407
Al -7.90182 -6.00045 -5.63792
Al -5.84848 7.62224 2.8199
Al -5.94069 7.76784 11.1903
Al -5.92128 7.78621 -5.72562
Al 5.98858 -7.71653 2.8975
Al 5.83779 -7.72129 11.3505
Al 5.87332 -7.7452 -5.60628
Al -7.94095 -5.95264 -2.67625
Al -7.83295 -5.89118 5.78259
Al -7.83492 -5.95738 -11.2667
Al -16.0473 6.07693 -2.89805
Al -16.175 6.1184 5.71354